# LAMMPS data file written by OVITO Basic 3.10.6

2112 atoms
1 atom types

0.0 40.773 xlo xhi
0.0 35.31 ylo yhi
0.0 34.565 zlo zhi
-20.386 0.0 0.0 xy xz yz

Masses

1 63.546  # Cu

Atoms  # atomic

1 1 -1.2740000005 2.2070000009 12.0810000015
2 1 2.038994308e-04 2.9419999986 10.0000000014
3 1 0.0 0.0 12.0810000015
4 1 1.2740000001 0.7360000016 10.0000000014
5 1 3.8229999981 0.7360000016 10.0000000014
6 1 1.274000001 2.2070000009 12.0810000015
7 1 2.5489999998 2.9419999986 10.0000000014
8 1 2.5479999994 0.0 12.0810000015
9 1 3.8220000004 2.2070000009 12.0810000015
10 1 5.0969999992 2.9419999986 10.0000000014
11 1 5.0970000015 0.0 12.0810000015
12 1 6.3709999975 0.7360000016 10.0000000014
13 1 6.3709999984 2.2070000009 12.0810000015
14 1 7.6450000027 2.9419999986 10.0000000014
15 1 7.6450000009 0.0 12.0810000015
16 1 8.919000001 0.7360000016 10.0000000014
17 1 10.1930000022 2.9419999986 10.0000000014
18 1 10.1930000004 0.0 12.0810000015
19 1 11.4670000005 0.7360000016 10.0000000014
20 1 8.9189999979 2.2070000009 12.0810000015
21 1 11.4670000014 2.2070000009 12.0810000015
22 1 14.0159999985 0.7360000016 10.0000000014
23 1 12.7420000002 2.9419999986 10.0000000014
24 1 12.7409999998 0.0 12.0810000015
25 1 15.2899999996 2.9419999986 10.0000000014
26 1 15.2900000019 0.0 12.0810000015
27 1 14.0159999994 2.2070000009 12.0810000015
28 1 16.5639999979 0.7360000016 10.0000000014
29 1 19.1119999973 0.7360000016 10.0000000014
30 1 16.5639999988 2.2070000009 12.0810000015
31 1 17.837999999 2.9419999986 10.0000000014
32 1 17.8380000013 0.0 12.0810000015
33 1 19.1119999982 2.2070000009 12.0810000015
34 1 20.3870000011 2.9419999986 10.0000000014
35 1 20.3860000007 0.0 12.0810000015
36 1 21.6609999994 0.7360000016 10.0000000014
37 1 24.2089999988 0.7360000016 10.0000000014
38 1 21.6599999976 2.2070000009 12.0810000015
39 1 22.9350000005 2.9419999986 10.0000000014
40 1 22.9349999987 0.0 12.0810000015
41 1 24.2089999997 2.2070000009 12.0810000015
42 1 25.4829999999 2.9419999986 10.0000000014
43 1 25.4829999981 0.0 12.0810000015
44 1 26.7569999982 0.7360000016 10.0000000014
45 1 26.7569999992 2.2070000009 12.0810000015
46 1 28.0309999994 2.9419999986 10.0000000014
47 1 28.0310000016 0.0 12.0810000015
48 1 29.3049999977 0.7360000016 10.0000000014
49 1 30.5800000015 2.9419999986 10.0000000014
50 1 30.5790000011 0.0 12.0810000015
51 1 31.8539999998 0.7360000016 10.0000000014
52 1 29.3049999986 2.2070000009 12.0810000015
53 1 31.8540000007 2.2070000009 12.0810000015
54 1 34.4019999992 0.7360000016 10.0000000014
55 1 33.1280000009 2.9419999986 10.0000000014
56 1 33.1279999991 0.0 12.0810000015
57 1 35.6760000003 2.9419999986 10.0000000014
58 1 35.6759999985 0.0 12.0810000015
59 1 34.4020000001 2.2070000009 12.0810000015
60 1 36.9499999986 0.7360000016 10.0000000014
61 1 39.4990000007 0.7360000016 10.0000000014
62 1 36.9499999995 2.2070000009 12.0810000015
63 1 38.2239999997 2.9419999986 10.0000000014
64 1 38.224000002 0.0 12.0810000015
65 1 -2.5479999991 7.3560000005 10.0000000014
66 1 -2.547999999 4.4139999983 12.0810000015
67 1 -1.2740000007 5.1489999996 10.0000000014
68 1 -3.8219999996 6.6209999993 12.0810000015
69 1 -1.2739999978 6.6209999993 12.0810000015
70 1 -2.5480000003 8.8280000002 12.0810000015
71 1 1.2739999987 5.1489999996 10.0000000014
72 1 2.038979619e-04 7.3560000005 10.0000000014
73 1 5.6970028695e-10 4.4139999983 12.0810000015
74 1 2.5489999984 7.3560000005 10.0000000014
75 1 2.548 4.4139999983 12.0810000015
76 1 3.8230000008 5.1489999996 10.0000000014
77 1 1.2740000016 6.6209999993 12.0810000015
78 1 3.822000001 6.6209999993 12.0810000015
79 1 -8.9919982571e-10 8.8280000002 12.0810000015
80 1 2.5479999985 8.8280000002 12.0810000015
81 1 6.3710000003 5.1489999996 10.0000000014
82 1 5.0969999978 7.3560000005 10.0000000014
83 1 5.0970000021 4.4139999983 12.0810000015
84 1 7.6450000013 7.3560000005 10.0000000014
85 1 7.6450000015 4.4139999983 12.0810000015
86 1 6.370999999 6.6209999993 12.0810000015
87 1 5.0970000006 8.8280000002 12.0810000015
88 1 7.645 8.8280000002 12.0810000015
89 1 8.9189999997 5.1489999996 10.0000000014
90 1 11.4669999991 5.1489999996 10.0000000014
91 1 8.9189999984 6.6209999993 12.0810000015
92 1 10.1930000007 7.3560000005 10.0000000014
93 1 10.1930000009 4.4139999983 12.0810000015
94 1 11.4670000019 6.6209999993 12.0810000015
95 1 10.1929999995 8.8280000002 12.0810000015
96 1 12.7419999987 7.3560000005 10.0000000014
97 1 12.7410000003 4.4139999983 12.0810000015
98 1 14.0160000012 5.1489999996 10.0000000014
99 1 14.016 6.6209999993 12.0810000015
100 1 15.2899999981 7.3560000005 10.0000000014
101 1 15.2900000024 4.4139999983 12.0810000015
102 1 12.7409999989 8.8280000002 12.0810000015
103 1 15.290000001 8.8280000002 12.0810000015
104 1 16.5640000006 5.1489999996 10.0000000014
105 1 17.8380000016 7.3560000005 10.0000000014
106 1 17.8380000019 4.4139999983 12.0810000015
107 1 19.112 5.1489999996 10.0000000014
108 1 16.5639999994 6.6209999993 12.0810000015
109 1 19.1119999988 6.6209999993 12.0810000015
110 1 17.8380000004 8.8280000002 12.0810000015
111 1 21.6610000021 5.1489999996 10.0000000014
112 1 20.3869999996 7.3560000005 10.0000000014
113 1 20.3860000013 4.4139999983 12.0810000015
114 1 22.9349999991 7.3560000005 10.0000000014
115 1 22.9349999993 4.4139999983 12.0810000015
116 1 24.2090000015 5.1489999996 10.0000000014
117 1 21.6600000023 6.6209999993 12.0810000015
118 1 24.2090000003 6.6209999993 12.0810000015
119 1 20.3859999998 8.8280000002 12.0810000015
120 1 22.9350000019 8.8280000002 12.0810000015
121 1 26.757000001 5.1489999996 10.0000000014
122 1 25.4829999985 7.3560000005 10.0000000014
123 1 25.4830000028 4.4139999983 12.0810000015
124 1 28.0309999979 7.3560000005 10.0000000014
125 1 28.0310000022 4.4139999983 12.0810000015
126 1 26.7569999997 6.6209999993 12.0810000015
127 1 25.4830000013 8.8280000002 12.0810000015
128 1 28.0310000007 8.8280000002 12.0810000015
129 1 29.3050000004 5.1489999996 10.0000000014
130 1 31.8539999984 5.1489999996 10.0000000014
131 1 29.3049999991 6.6209999993 12.0810000015
132 1 30.58 7.3560000005 10.0000000014
133 1 30.5790000016 4.4139999983 12.0810000015
134 1 31.8540000012 6.6209999993 12.0810000015
135 1 30.5790000002 8.8280000002 12.0810000015
136 1 33.1279999994 7.3560000005 10.0000000014
137 1 33.1279999996 4.4139999983 12.0810000015
138 1 34.4020000019 5.1489999996 10.0000000014
139 1 34.4020000007 6.6209999993 12.0810000015
140 1 35.6759999988 7.3560000005 10.0000000014
141 1 35.6759999991 4.4139999983 12.0810000015
142 1 35.6760000017 8.8280000002 12.0810000015
143 1 33.1279999982 8.8280000002 12.0810000015
144 1 36.9500000013 5.1489999996 10.0000000014
145 1 -5.0959999979 11.7699999988 10.0000000014
146 1 -6.3710000004 11.0340000007 12.0810000015
147 1 -3.8220000016 9.5630000014 10.0000000014
148 1 -1.2740000021 9.5630000014 10.0000000014
149 1 -3.8220000007 11.0340000007 12.0810000015
150 1 -2.5479999985 11.7699999988 10.0000000014
151 1 -1.2740000012 11.0340000007 12.0810000015
152 1 2.039026089e-04 11.7699999988 10.0000000014
153 1 1.2739999973 9.5630000014 10.0000000014
154 1 3.8229999994 9.5630000014 10.0000000014
155 1 1.2739999982 11.0340000007 12.0810000015
156 1 2.5489999989 11.7699999988 10.0000000014
157 1 3.8219999976 11.0340000007 12.0810000015
158 1 5.0970000024 11.7699999988 10.0000000014
159 1 6.3709999988 9.5630000014 10.0000000014
160 1 6.3709999997 11.0340000007 12.0810000015
161 1 7.6450000018 11.7699999988 10.0000000014
162 1 8.9189999982 9.5630000014 10.0000000014
163 1 10.1930000013 11.7699999988 10.0000000014
164 1 11.4669999976 9.5630000014 10.0000000014
165 1 8.9189999991 11.0340000007 12.0810000015
166 1 11.4669999985 11.0340000007 12.0810000015
167 1 14.0159999997 9.5630000014 10.0000000014
168 1 12.7419999993 11.7699999988 10.0000000014
169 1 15.2899999987 11.7699999988 10.0000000014
170 1 14.0160000006 11.0340000007 12.0810000015
171 1 16.5639999991 9.5630000014 10.0000000014
172 1 19.1119999986 9.5630000014 10.0000000014
173 1 16.564 11.0340000007 12.0810000015
174 1 17.8380000022 11.7699999988 10.0000000014
175 1 19.1119999995 11.0340000007 12.0810000015
176 1 20.3870000002 11.7699999988 10.0000000014
177 1 21.6610000007 9.5630000014 10.0000000014
178 1 24.2090000001 9.5630000014 10.0000000014
179 1 21.6599999989 11.0340000007 12.0810000015
180 1 22.9349999996 11.7699999988 10.0000000014
181 1 24.209000001 11.0340000007 12.0810000015
182 1 25.482999999 11.7699999988 10.0000000014
183 1 26.7569999995 9.5630000014 10.0000000014
184 1 26.7570000004 11.0340000007 12.0810000015
185 1 28.0310000025 11.7699999988 10.0000000014
186 1 29.3049999989 9.5630000014 10.0000000014
187 1 30.5800000006 11.7699999988 10.0000000014
188 1 31.854000001 9.5630000014 10.0000000014
189 1 29.3049999998 11.0340000007 12.0810000015
190 1 31.8539999978 11.0340000007 12.0810000015
191 1 34.4020000004 9.5630000014 10.0000000014
192 1 33.128 11.7699999988 10.0000000014
193 1 -8.9189999995 15.4479999991 12.0810000015
194 1 -7.6450000015 16.1840000007 10.0000000014
195 1 -6.3700000004 13.9769999998 10.0000000014
196 1 -6.3709999981 15.4479999991 12.0810000015
197 1 -5.0959999994 16.1840000007 10.0000000014
198 1 -5.0970000017 13.2410000017 12.0810000015
199 1 -3.822000001 13.9769999998 10.0000000014
200 1 -2.548 16.1840000007 10.0000000014
201 1 -2.5479999996 13.2410000017 12.0810000015
202 1 -1.2740000016 13.9769999998 10.0000000014
203 1 -3.8220000001 15.4479999991 12.0810000015
204 1 -1.2740000007 15.4479999991 12.0810000015
205 1 1.2740000019 13.9769999998 10.0000000014
206 1 2.0390114e-04 16.1840000007 10.0000000014
207 1 -2.1919976945e-10 13.2410000017 12.0810000015
208 1 2.5490000015 16.1840000007 10.0000000014
209 1 2.5479999992 13.2410000017 12.0810000015
210 1 3.8229999999 13.9769999998 10.0000000014
211 1 1.2739999988 15.4479999991 12.0810000015
212 1 3.8220000023 15.4479999991 12.0810000015
213 1 6.3709999994 13.9769999998 10.0000000014
214 1 5.097000001 16.1840000007 10.0000000014
215 1 5.0969999972 13.2410000017 12.0810000015
216 1 7.6450000004 16.1840000007 10.0000000014
217 1 7.6450000007 13.2410000017 12.0810000015
218 1 6.3710000003 15.4479999991 12.0810000015
219 1 8.9189999988 13.9769999998 10.0000000014
220 1 11.4669999982 13.9769999998 10.0000000014
221 1 8.9189999997 15.4479999991 12.0810000015
222 1 10.1929999998 16.1840000007 10.0000000014
223 1 10.1930000001 13.2410000017 12.0810000015
224 1 11.4669999991 15.4479999991 12.0810000015
225 1 12.7419999978 16.1840000007 10.0000000014
226 1 12.7409999996 13.2410000017 12.0810000015
227 1 14.0160000003 13.9769999998 10.0000000014
228 1 14.0160000012 15.4479999991 12.0810000015
229 1 15.2900000013 16.1840000007 10.0000000014
230 1 15.2899999976 13.2410000017 12.0810000015
231 1 16.5639999997 13.9769999998 10.0000000014
232 1 17.8380000007 16.1840000007 10.0000000014
233 1 17.8380000011 13.2410000017 12.0810000015
234 1 19.1119999991 13.9769999998 10.0000000014
235 1 16.5640000006 15.4479999991 12.0810000015
236 1 19.112 15.4479999991 12.0810000015
237 1 21.6610000012 13.9769999998 10.0000000014
238 1 20.3869999987 16.1840000007 10.0000000014
239 1 20.3860000005 13.2410000017 12.0810000015
240 1 22.9349999982 16.1840000007 10.0000000014
241 1 22.9349999985 13.2410000017 12.0810000015
242 1 24.2090000006 13.9769999998 10.0000000014
243 1 21.6599999995 15.4479999991 12.0810000015
244 1 24.2090000016 15.4479999991 12.0810000015
245 1 26.7570000001 13.9769999998 10.0000000014
246 1 25.4829999976 16.1840000007 10.0000000014
247 1 25.4829999979 13.2410000017 12.0810000015
248 1 28.0310000011 16.1840000007 10.0000000014
249 1 28.0309999973 13.2410000017 12.0810000015
250 1 26.757000001 15.4479999991 12.0810000015
251 1 29.3049999995 13.9769999998 10.0000000014
252 1 31.8540000016 13.9769999998 10.0000000014
253 1 29.3050000004 15.4479999991 12.0810000015
254 1 30.5799999991 16.1840000007 10.0000000014
255 1 30.5790000008 13.2410000017 12.0810000015
256 1 33.1279999988 13.2410000017 12.0810000015
257 1 -12.740999999 22.0689999983 12.0810000015
258 1 -10.1929999982 20.5969999986 10.0000000014
259 1 -10.193 17.655 12.0810000015
260 1 -8.9189999999 18.3910000016 10.0000000014
261 1 -8.918999999 19.8620000009 12.0810000015
262 1 -10.1929999994 22.0689999983 12.0810000015
263 1 -6.3700000019 18.3910000016 10.0000000014
264 1 -7.6449999988 20.5969999986 10.0000000014
265 1 -7.6450000006 17.655 12.0810000015
266 1 -5.0960000008 20.5969999986 10.0000000014
267 1 -5.0970000012 17.655 12.0810000015
268 1 -6.3709999996 19.8620000009 12.0810000015
269 1 -7.645 22.0689999983 12.0810000015
270 1 -5.0970000006 22.0689999983 12.0810000015
271 1 -3.8220000025 18.3910000016 10.0000000014
272 1 -1.273999999 18.3910000016 10.0000000014
273 1 -3.8220000016 19.8620000009 12.0810000015
274 1 -2.5479999973 20.5969999986 10.0000000014
275 1 -2.5479999991 17.655 12.0810000015
276 1 -1.2740000021 19.8620000009 12.0810000015
277 1 -2.5479999985 22.0689999983 12.0810000015
278 1 2.038997813e-04 20.5969999986 10.0000000014
279 1 3.5050007341e-10 17.655 12.0810000015
280 1 1.2740000005 18.3910000016 10.0000000014
281 1 3.8229999985 18.3910000016 10.0000000014
282 1 1.2740000014 19.8620000009 12.0810000015
283 1 2.5490000002 20.5969999986 10.0000000014
284 1 2.5479999998 17.655 12.0810000015
285 1 3.8220000008 19.8620000009 12.0810000015
286 1 9.2020080444e-10 22.0689999983 12.0810000015
287 1 2.5480000003 22.0689999983 12.0810000015
288 1 5.0969999996 20.5969999986 10.0000000014
289 1 5.0970000019 17.655 12.0810000015
290 1 6.3709999979 18.3910000016 10.0000000014
291 1 6.3709999988 19.8620000009 12.0810000015
292 1 7.644999999 20.5969999986 10.0000000014
293 1 7.6450000013 17.655 12.0810000015
294 1 5.0970000024 22.0689999983 12.0810000015
295 1 7.6450000019 22.0689999983 12.0810000015
296 1 8.9189999973 18.3910000016 10.0000000014
297 1 10.1930000025 20.5969999986 10.0000000014
298 1 10.1930000007 17.655 12.0810000015
299 1 11.4670000008 18.3910000016 10.0000000014
300 1 8.9189999982 19.8620000009 12.0810000015
301 1 11.4669999976 19.8620000009 12.0810000015
302 1 10.1930000013 22.0689999983 12.0810000015
303 1 14.0159999988 18.3910000016 10.0000000014
304 1 12.7420000005 20.5969999986 10.0000000014
305 1 12.7410000001 17.655 12.0810000015
306 1 15.2899999999 20.5969999986 10.0000000014
307 1 15.2899999981 17.655 12.0810000015
308 1 14.0159999997 19.8620000009 12.0810000015
309 1 12.7410000007 22.0689999983 12.0810000015
310 1 15.2900000028 22.0689999983 12.0810000015
311 1 16.5639999982 18.3910000016 10.0000000014
312 1 19.1119999977 18.3910000016 10.0000000014
313 1 16.5639999992 19.8620000009 12.0810000015
314 1 17.8379999994 20.5969999986 10.0000000014
315 1 17.8380000016 17.655 12.0810000015
316 1 19.1119999986 19.8620000009 12.0810000015
317 1 17.8380000022 22.0689999983 12.0810000015
318 1 20.3870000015 20.5969999986 10.0000000014
319 1 20.3860000011 17.655 12.0810000015
320 1 21.6609999998 18.3910000016 10.0000000014
321 1 24.2089999992 18.3910000016 10.0000000014
322 1 21.659999998 19.8620000009 12.0810000015
323 1 22.9350000009 20.5969999986 10.0000000014
324 1 22.9349999991 17.655 12.0810000015
325 1 24.2090000001 19.8620000009 12.0810000015
326 1 20.3860000016 22.0689999983 12.0810000015
327 1 22.9349999996 22.0689999983 12.0810000015
328 1 25.4830000003 20.5969999986 10.0000000014
329 1 25.4829999985 17.655 12.0810000015
330 1 26.7569999986 18.3910000016 10.0000000014
331 1 26.7569999995 19.8620000009 12.0810000015
332 1 28.0309999997 20.5969999986 10.0000000014
333 1 28.031000002 17.655 12.0810000015
334 1 25.4829999991 22.0689999983 12.0810000015
335 1 29.3049999989 19.8620000009 12.0810000015
336 1 29.304999998 18.3910000016 10.0000000014
337 1 -12.7409999991 25.0110000005 10.0000000014
338 1 -11.4670000007 22.8039999996 10.0000000014
339 1 -8.9190000013 22.8039999996 10.0000000014
340 1 -11.4669999978 24.2759999993 12.0810000015
341 1 -10.1929999997 25.0110000005 10.0000000014
342 1 -8.9189999984 24.2759999993 12.0810000015
343 1 -7.6450000002 25.0110000005 10.0000000014
344 1 -6.3699999992 22.8039999996 10.0000000014
345 1 -6.370999999 24.2759999993 12.0810000015
346 1 -5.0960000022 25.0110000005 10.0000000014
347 1 -3.8219999997 22.8039999996 10.0000000014
348 1 -2.5479999987 25.0110000005 10.0000000014
349 1 -1.2740000003 22.8039999996 10.0000000014
350 1 -3.822000001 24.2759999993 12.0810000015
351 1 -1.2740000016 24.2759999993 12.0810000015
352 1 1.2739999991 22.8039999996 10.0000000014
353 1 2.038983124e-04 25.0110000005 10.0000000014
354 1 2.5489999987 25.0110000005 10.0000000014
355 1 3.8230000012 22.8039999996 10.0000000014
356 1 1.2740000019 24.2759999993 12.0810000015
357 1 3.8220000014 24.2759999993 12.0810000015
358 1 6.3710000006 22.8039999996 10.0000000014
359 1 5.0969999981 25.0110000005 10.0000000014
360 1 7.6450000016 25.0110000005 10.0000000014
361 1 6.3709999994 24.2759999993 12.0810000015
362 1 8.919 22.8039999996 10.0000000014
363 1 11.4669999994 22.8039999996 10.0000000014
364 1 8.9189999988 24.2759999993 12.0810000015
365 1 10.193000001 25.0110000005 10.0000000014
366 1 11.4670000023 24.2759999993 12.0810000015
367 1 12.7419999991 25.0110000005 10.0000000014
368 1 14.0160000015 22.8039999996 10.0000000014
369 1 14.0160000003 24.2759999993 12.0810000015
370 1 15.2899999985 25.0110000005 10.0000000014
371 1 16.564000001 22.8039999996 10.0000000014
372 1 17.8379999979 25.0110000005 10.0000000014
373 1 19.1120000004 22.8039999996 10.0000000014
374 1 16.5639999997 24.2759999993 12.0810000015
375 1 19.1119999991 24.2759999993 12.0810000015
376 1 21.6609999984 22.8039999996 10.0000000014
377 1 20.387 25.0110000005 10.0000000014
378 1 22.9349999994 25.0110000005 10.0000000014
379 1 24.2090000019 22.8039999996 10.0000000014
380 1 21.6599999986 24.2759999993 12.0810000015
381 1 24.2090000007 24.2759999993 12.0810000015
382 1 26.7570000001 24.2759999993 12.0810000015
383 1 26.7570000013 22.8039999996 10.0000000014
384 1 25.4829999988 25.0110000005 10.0000000014
385 1 -15.2900000006 29.4249999988 10.0000000014
386 1 -15.2900000001 26.4830000002 12.0810000015
387 1 -14.0150000016 27.2180000014 10.0000000014
388 1 -14.0159999992 28.6890000007 12.0810000015
389 1 -12.7409999985 29.4249999988 10.0000000014
390 1 -12.7410000003 26.4830000002 12.0810000015
391 1 -15.2900000017 30.8960000017 12.0810000015
392 1 -12.7409999996 30.8960000017 12.0810000015
393 1 -11.4670000021 27.2180000014 10.0000000014
394 1 -10.1929999991 29.4249999988 10.0000000014
395 1 -10.1930000009 26.4830000002 12.0810000015
396 1 -8.9190000027 27.2180000014 10.0000000014
397 1 -11.4670000012 28.6890000007 12.0810000015
398 1 -8.9190000018 28.6890000007 12.0810000015
399 1 -10.1930000002 30.8960000017 12.0810000015
400 1 -6.3700000006 27.2180000014 10.0000000014
401 1 -7.6449999997 29.4249999988 10.0000000014
402 1 -7.6450000015 26.4830000002 12.0810000015
403 1 -5.0959999976 29.4249999988 10.0000000014
404 1 -5.0970000021 26.4830000002 12.0810000015
405 1 -6.3710000024 28.6890000007 12.0810000015
406 1 -7.6450000008 30.8960000017 12.0810000015
407 1 -5.0970000014 30.8960000017 12.0810000015
408 1 -3.8220000012 27.2180000014 10.0000000014
409 1 -1.2740000018 27.2180000014 10.0000000014
410 1 -3.8220000003 28.6890000007 12.0810000015
411 1 -2.5479999982 29.4249999988 10.0000000014
412 1 -2.548 26.4830000002 12.0810000015
413 1 -1.2740000009 28.6890000007 12.0810000015
414 1 -2.5479999993 30.8960000017 12.0810000015
415 1 2.038988821e-04 29.4249999988 10.0000000014
416 1 -5.4869708777e-10 26.4830000002 12.0810000015
417 1 1.2739999976 27.2180000014 10.0000000014
418 1 3.8229999997 27.2180000014 10.0000000014
419 1 1.2739999985 28.6890000007 12.0810000015
420 1 2.5489999993 29.4249999988 10.0000000014
421 1 2.5479999989 26.4830000002 12.0810000015
422 1 3.821999998 28.6890000007 12.0810000015
423 1 1.3130119214e-10 30.8960000017 12.0810000015
424 1 2.5479999996 30.8960000017 12.0810000015
425 1 5.0969999987 29.4249999988 10.0000000014
426 1 5.097000001 26.4830000002 12.0810000015
427 1 6.3709999991 27.2180000014 10.0000000014
428 1 6.371 28.6890000007 12.0810000015
429 1 7.6450000022 29.4249999988 10.0000000014
430 1 7.6450000004 26.4830000002 12.0810000015
431 1 5.0969999976 30.8960000017 12.0810000015
432 1 7.6450000011 30.8960000017 12.0810000015
433 1 8.9189999986 27.2180000014 10.0000000014
434 1 10.1930000016 29.4249999988 10.0000000014
435 1 10.1929999998 26.4830000002 12.0810000015
436 1 11.466999998 27.2180000014 10.0000000014
437 1 8.9189999995 28.6890000007 12.0810000015
438 1 11.4669999989 28.6890000007 12.0810000015
439 1 10.1930000005 30.8960000017 12.0810000015
440 1 14.0160000001 27.2180000014 10.0000000014
441 1 12.7419999996 29.4249999988 10.0000000014
442 1 12.7409999992 26.4830000002 12.0810000015
443 1 15.289999999 29.4249999988 10.0000000014
444 1 15.2900000013 26.4830000002 12.0810000015
445 1 14.016000001 28.6890000007 12.0810000015
446 1 12.7409999999 30.8960000017 12.0810000015
447 1 15.2899999979 30.8960000017 12.0810000015
448 1 16.5639999995 27.2180000014 10.0000000014
449 1 19.1119999989 27.2180000014 10.0000000014
450 1 16.5640000004 28.6890000007 12.0810000015
451 1 17.8380000025 29.4249999988 10.0000000014
452 1 17.8380000007 26.4830000002 12.0810000015
453 1 19.1119999998 28.6890000007 12.0810000015
454 1 17.8379999973 30.8960000017 12.0810000015
455 1 24.2090000013 28.6890000007 12.0810000015
456 1 20.3870000006 29.4249999988 10.0000000014
457 1 20.3860000002 26.4830000002 12.0810000015
458 1 21.661000001 27.2180000014 10.0000000014
459 1 24.2090000004 27.2180000014 10.0000000014
460 1 21.6599999992 28.6890000007 12.0810000015
461 1 22.935 29.4249999988 10.0000000014
462 1 22.9349999982 26.4830000002 12.0810000015
463 1 22.9349999988 30.8960000017 12.0810000015
464 1 20.3860000008 30.8960000017 12.0810000015
465 1 -17.8380000015 33.8390000007 10.0000000014
466 1 -16.563999999 31.6319999998 10.0000000014
467 1 -16.5639999981 33.1029999991 12.0810000015
468 1 -14.015000001 31.6319999998 10.0000000014
469 1 -15.2900000021 33.8390000007 10.0000000014
470 1 -12.741 33.8390000007 10.0000000014
471 1 -14.0159999987 33.1029999991 12.0810000015
472 1 -11.4670000016 31.6319999998 10.0000000014
473 1 -8.9189999981 31.6319999998 10.0000000014
474 1 -11.4670000007 33.1029999991 12.0810000015
475 1 -10.1930000006 33.8390000007 10.0000000014
476 1 -8.9190000012 33.1029999991 12.0810000015
477 1 -7.6450000011 33.8390000007 10.0000000014
478 1 -6.3700000001 31.6319999998 10.0000000014
479 1 -6.3709999977 33.1029999991 12.0810000015
480 1 -5.095999999 33.8390000007 10.0000000014
481 1 -3.8220000006 31.6319999998 10.0000000014
482 1 -2.5479999996 33.8390000007 10.0000000014
483 1 -1.2740000012 31.6319999998 10.0000000014
484 1 -3.8219999997 33.1029999991 12.0810000015
485 1 -1.2740000003 33.1029999991 12.0810000015
486 1 1.2739999982 31.6319999998 10.0000000014
487 1 2.039014905e-04 33.8390000007 10.0000000014
488 1 2.5489999978 33.8390000007 10.0000000014
489 1 3.8230000003 31.6319999998 10.0000000014
490 1 1.2739999991 33.1029999991 12.0810000015
491 1 3.8219999985 33.1029999991 12.0810000015
492 1 6.3709999997 31.6319999998 10.0000000014
493 1 5.0970000013 33.8390000007 10.0000000014
494 1 7.6450000007 33.8390000007 10.0000000014
495 1 6.3710000006 33.1029999991 12.0810000015
496 1 8.9189999991 31.6319999998 10.0000000014
497 1 11.4669999986 31.6319999998 10.0000000014
498 1 8.919 33.1029999991 12.0810000015
499 1 10.1930000001 33.8390000007 10.0000000014
500 1 11.4669999995 33.1029999991 12.0810000015
501 1 12.7419999982 33.8390000007 10.0000000014
502 1 14.0160000006 31.6319999998 10.0000000014
503 1 14.0160000016 33.1029999991 12.0810000015
504 1 15.2899999976 33.8390000007 10.0000000014
505 1 16.5640000001 31.6319999998 10.0000000014
506 1 17.8380000011 33.8390000007 10.0000000014
507 1 19.1119999995 31.6319999998 10.0000000014
508 1 16.564000001 33.1029999991 12.0810000015
509 1 19.1120000004 33.1029999991 12.0810000015
510 1 21.6599999998 33.1029999991 12.0810000015
511 1 21.6610000016 31.6319999998 10.0000000014
512 1 20.3869999991 33.8390000007 10.0000000014
513 1 -1.2740000016 3.6780000002 14.1620000016
514 1 -2.039007895e-04 1.4709999993 14.1620000016
515 1 2.5480000003 1.4709999993 14.1620000016
516 1 2.038994308e-04 2.9419999986 16.2420000017
517 1 1.2739999978 3.6780000002 14.1620000016
518 1 1.2740000001 0.7360000016 16.2420000017
519 1 3.8229999981 0.7360000016 16.2420000017
520 1 2.5489999998 2.9419999986 16.2420000017
521 1 3.8220000013 3.6780000002 14.1620000016
522 1 7.6450000018 1.4709999993 14.1620000016
523 1 5.0969999992 2.9419999986 16.2420000017
524 1 6.3700000008 3.6780000002 14.1620000016
525 1 6.3709999975 0.7360000016 16.2420000017
526 1 5.0959999997 1.4709999993 14.1620000016
527 1 7.6450000027 2.9419999986 16.2420000017
528 1 8.919000001 0.7360000016 16.2420000017
529 1 10.1930000022 2.9419999986 16.2420000017
530 1 11.4669999982 3.6780000002 14.1620000016
531 1 11.4670000005 0.7360000016 16.2420000017
532 1 8.9189999988 3.6780000002 14.1620000016
533 1 10.1930000013 1.4709999993 14.1620000016
534 1 12.7410000007 1.4709999993 14.1620000016
535 1 14.0159999985 0.7360000016 16.2420000017
536 1 12.7420000002 2.9419999986 16.2420000017
537 1 15.2899999996 2.9419999986 16.2420000017
538 1 14.0150000017 3.6780000002 14.1620000016
539 1 15.2899999987 1.4709999993 14.1620000016
540 1 17.8380000022 1.4709999993 14.1620000016
541 1 16.5639999997 3.6780000002 14.1620000016
542 1 16.5639999979 0.7360000016 16.2420000017
543 1 19.1119999973 0.7360000016 16.2420000017
544 1 17.837999999 2.9419999986 16.2420000017
545 1 19.1119999991 3.6780000002 14.1620000016
546 1 20.3860000016 1.4709999993 14.1620000016
547 1 22.934000001 1.4709999993 14.1620000016
548 1 20.3870000011 2.9419999986 16.2420000017
549 1 21.6599999985 3.6780000002 14.1620000016
550 1 21.6609999994 0.7360000016 16.2420000017
551 1 24.2089999988 0.7360000016 16.2420000017
552 1 22.9350000005 2.9419999986 16.2420000017
553 1 24.2090000006 3.6780000002 14.1620000016
554 1 28.0309999985 1.4709999993 14.1620000016
555 1 25.4829999999 2.9419999986 16.2420000017
556 1 26.7570000001 3.6780000002 14.1620000016
557 1 26.7569999982 0.7360000016 16.2420000017
558 1 25.482999999 1.4709999993 14.1620000016
559 1 28.0309999994 2.9419999986 16.2420000017
560 1 29.3049999977 0.7360000016 16.2420000017
561 1 30.5800000015 2.9419999986 16.2420000017
562 1 31.8529999989 3.6780000002 14.1620000016
563 1 31.8539999998 0.7360000016 16.2420000017
564 1 29.3049999995 3.6780000002 14.1620000016
565 1 30.579000002 1.4709999993 14.1620000016
566 1 33.1270000014 1.4709999993 14.1620000016
567 1 34.4019999992 0.7360000016 16.2420000017
568 1 33.1280000009 2.9419999986 16.2420000017
569 1 35.6760000003 2.9419999986 16.2420000017
570 1 34.402000001 3.6780000002 14.1620000016
571 1 35.6759999994 1.4709999993 14.1620000016
572 1 38.2239999988 1.4709999993 14.1620000016
573 1 36.9500000004 3.6780000002 14.1620000016
574 1 36.9499999986 0.7360000016 16.2420000017
575 1 39.4990000007 0.7360000016 16.2420000017
576 1 38.2239999997 2.9419999986 16.2420000017
577 1 -2.039022584e-04 5.8850000012 14.1620000016
578 1 -2.5479999991 7.3560000005 16.2420000017
579 1 -1.274000001 8.0919999986 14.1620000016
580 1 -1.2740000007 5.1489999996 16.2420000017
581 1 -3.822999999 8.0919999986 14.1620000016
582 1 -2.5490000027 5.8850000012 14.1620000016
583 1 1.2739999987 5.1489999996 16.2420000017
584 1 2.038979619e-04 7.3560000005 16.2420000017
585 1 2.5489999984 7.3560000005 16.2420000017
586 1 3.8220000019 8.0919999986 14.1620000016
587 1 3.8230000008 5.1489999996 16.2420000017
588 1 1.2740000025 8.0919999986 14.1620000016
589 1 2.5479999989 5.8850000012 14.1620000016
590 1 5.0959999983 5.8850000012 14.1620000016
591 1 6.3710000003 5.1489999996 16.2420000017
592 1 5.0969999978 7.3560000005 16.2420000017
593 1 7.6450000013 7.3560000005 16.2420000017
594 1 6.3700000013 8.0919999986 14.1620000016
595 1 7.6450000004 5.8850000012 14.1620000016
596 1 10.1929999998 5.8850000012 14.1620000016
597 1 8.9189999993 8.0919999986 14.1620000016
598 1 8.9189999997 5.1489999996 16.2420000017
599 1 11.4669999991 5.1489999996 16.2420000017
600 1 10.1930000007 7.3560000005 16.2420000017
601 1 11.4670000028 8.0919999986 14.1620000016
602 1 15.2900000013 5.8850000012 14.1620000016
603 1 12.7419999987 7.3560000005 16.2420000017
604 1 14.0150000023 8.0919999986 14.1620000016
605 1 14.0160000012 5.1489999996 16.2420000017
606 1 12.7409999992 5.8850000012 14.1620000016
607 1 15.2899999981 7.3560000005 16.2420000017
608 1 16.5640000006 5.1489999996 16.2420000017
609 1 20.3860000001 5.8850000012 14.1620000016
610 1 17.8380000016 7.3560000005 16.2420000017
611 1 19.1119999997 8.0919999986 14.1620000016
612 1 19.112 5.1489999996 16.2420000017
613 1 16.5640000003 8.0919999986 14.1620000016
614 1 17.8380000007 5.8850000012 14.1620000016
615 1 21.6610000021 5.1489999996 16.2420000017
616 1 20.3869999996 7.3560000005 16.2420000017
617 1 22.9349999991 7.3560000005 16.2420000017
618 1 24.2090000012 8.0919999986 14.1620000016
619 1 24.2090000015 5.1489999996 16.2420000017
620 1 21.6599999991 8.0919999986 14.1620000016
621 1 22.9339999996 5.8850000012 14.1620000016
622 1 25.4829999976 5.8850000012 14.1620000016
623 1 26.757000001 5.1489999996 16.2420000017
624 1 25.4829999985 7.3560000005 16.2420000017
625 1 28.0309999979 7.3560000005 16.2420000017
626 1 26.7570000006 8.0919999986 14.1620000016