# LAMMPS data file written by OVITO Basic 3.10.6

1728 atoms
3 atom types

0.0 40.773 xlo xhi
0.0 35.31 ylo yhi
0.0 30.403 zlo zhi
-20.386 0.0 0.0 xy xz yz

Masses

1 63.546  # Cu
2 12.0107  # C
3 15.9994  # O

Atoms  # atomic

1 1 -2.038998125e-04 0.7780000002 9.9999999996
2 1 -1.2740000006 2.9850000011 9.9999999996
3 1 1.2740000001 1.5130000014 12.0809999993
4 1 2.5480000013 0.7780000002 9.9999999996
5 1 3.8219999995 1.5130000014 12.0809999993
6 1 -3.8170000494e-10 3.7199999988 12.0809999993
7 1 1.2739999988 2.9850000011 9.9999999996
8 1 2.547999999 3.7199999988 12.0809999993
9 1 3.8219999982 2.9850000011 9.9999999996
10 1 5.0960000007 0.7780000002 9.9999999996
11 1 6.3709999975 1.5130000014 12.0809999993
12 1 7.6449999987 0.7780000002 9.9999999996
13 1 5.0970000011 3.7199999988 12.0809999993
14 1 6.3710000003 2.9850000011 9.9999999996
15 1 7.6450000006 3.7199999988 12.0809999993
16 1 8.919000001 1.5130000014 12.0809999993
17 1 10.1929999982 0.7780000002 9.9999999996
18 1 11.4670000004 1.5130000014 12.0809999993
19 1 8.9189999998 2.9850000011 9.9999999996
20 1 10.193 3.7199999988 12.0809999993
21 1 11.4669999992 2.9850000011 9.9999999996
22 1 12.7410000017 0.7780000002 9.9999999996
23 1 14.0159999984 1.5130000014 12.0809999993
24 1 12.7409999994 3.7199999988 12.0809999993
25 1 15.2899999997 0.7780000002 9.9999999996
26 1 14.0149999986 2.9850000011 9.9999999996
27 1 15.2900000015 3.7199999988 12.0809999993
28 1 16.5639999978 1.5130000014 12.0809999993
29 1 17.8379999991 0.7780000002 9.9999999996
30 1 19.1119999973 1.5130000014 12.0809999993
31 1 16.5640000007 2.9850000011 9.9999999996
32 1 17.8380000009 3.7199999988 12.0809999993
33 1 20.3859999985 0.7780000002 9.9999999996
34 1 19.1120000001 2.9850000011 9.9999999996
35 1 20.3860000003 3.7199999988 12.0809999993
36 1 21.6600000008 1.5130000014 12.0809999993
37 1 22.9339999979 0.7780000002 9.9999999996
38 1 24.2089999988 1.5130000014 12.0809999993
39 1 21.6599999995 2.9850000011 9.9999999996
40 1 22.9350000024 3.7199999988 12.0809999993
41 1 24.2089999975 2.9850000011 9.9999999996
42 1 25.483 0.7780000002 9.9999999996
43 1 26.7569999982 1.5130000014 12.0809999993
44 1 28.0309999994 0.7780000002 9.9999999996
45 1 25.4830000018 3.7199999988 12.0809999993
46 1 26.757000001 2.9850000011 9.9999999996
47 1 28.0310000013 3.7199999988 12.0809999993
48 1 29.3049999976 1.5130000014 12.0809999993
49 1 30.5789999989 0.7780000002 9.9999999996
50 1 31.8539999997 1.5130000014 12.0809999993
51 1 29.3050000005 2.9850000011 9.9999999996
52 1 30.5790000007 3.7199999988 12.0809999993
53 1 31.8529999999 2.9850000011 9.9999999996
54 1 33.1269999983 0.7780000002 9.9999999996
55 1 34.4019999991 1.5130000014 12.0809999993
56 1 33.1279999987 3.7199999988 12.0809999993
57 1 35.6760000004 0.7780000002 9.9999999996
58 1 34.4019999979 2.9850000011 9.9999999996
59 1 35.6760000022 3.7199999988 12.0809999993
60 1 36.9499999985 1.5130000014 12.0809999993
61 1 38.2239999998 0.7780000002 9.9999999996
62 1 39.497999998 1.5130000014 12.0809999993
63 1 36.9500000014 2.9850000011 9.9999999996
64 1 38.2240000016 3.7199999988 12.0809999993
65 1 -2.548000001 5.1919999985 9.9999999996
66 1 -1.2739999988 5.9269999997 12.0809999993
67 1 -2.038992428e-04 5.1919999985 9.9999999996
68 1 -3.822999998 7.3989999994 9.9999999996
69 1 -2.5480000013 8.1340000007 12.0809999993
70 1 -1.274 7.3989999994 9.9999999996
71 1 1.2740000006 5.9269999997 12.0809999993
72 1 -1.8505996735e-09 8.1340000007 12.0809999993
73 1 2.5480000019 5.1919999985 9.9999999996
74 1 3.8220000001 5.9269999997 12.0809999993
75 1 1.2739999994 7.3989999994 9.9999999996
76 1 2.5480000016 8.1340000007 12.0809999993
77 1 3.8219999988 7.3989999994 9.9999999996
78 1 5.0960000013 5.1919999985 9.9999999996
79 1 6.3710000021 5.9269999997 12.0809999993
80 1 5.0969999997 8.1340000007 12.0809999993
81 1 7.6449999993 5.1919999985 9.9999999996
82 1 6.3710000009 7.3989999994 9.9999999996
83 1 7.6449999991 8.1340000007 12.0809999993
84 1 8.9190000016 5.9269999997 12.0809999993
85 1 10.1930000028 5.1919999985 9.9999999996
86 1 11.467000001 5.9269999997 12.0809999993
87 1 8.9190000003 7.3989999994 9.9999999996
88 1 10.1929999985 8.1340000007 12.0809999993
89 1 11.4669999997 7.3989999994 9.9999999996
90 1 12.7410000022 5.1919999985 9.9999999996
91 1 14.015999999 5.9269999997 12.0809999993
92 1 15.2900000002 5.1919999985 9.9999999996
93 1 12.7409999979 8.1340000007 12.0809999993
94 1 14.0149999992 7.3989999994 9.9999999996
95 1 15.29 8.1340000007 12.0809999993
96 1 16.5639999984 5.9269999997 12.0809999993
97 1 17.8379999997 5.1919999985 9.9999999996
98 1 19.1120000019 5.9269999997 12.0809999993
99 1 20.3859999991 5.1919999985 9.9999999996
100 1 16.5640000013 7.3989999994 9.9999999996
101 1 17.8379999994 8.1340000007 12.0809999993
102 1 19.1120000007 7.3989999994 9.9999999996
103 1 21.6600000013 5.9269999997 12.0809999993
104 1 20.3859999989 8.1340000007 12.0809999993
105 1 22.9340000026 5.1919999985 9.9999999996
106 1 24.2089999993 5.9269999997 12.0809999993
107 1 21.6600000001 7.3989999994 9.9999999996
108 1 22.9350000009 8.1340000007 12.0809999993
109 1 24.2090000022 7.3989999994 9.9999999996
110 1 25.4830000006 5.1919999985 9.9999999996
111 1 26.7569999988 5.9269999997 12.0809999993
112 1 25.4830000004 8.1340000007 12.0809999993
113 1 28.031 5.1919999985 9.9999999996
114 1 26.7570000016 7.3989999994 9.9999999996
115 1 28.0309999998 8.1340000007 12.0809999993
116 1 29.3049999982 5.9269999997 12.0809999993
117 1 30.5789999994 5.1919999985 9.9999999996
118 1 31.8540000003 5.9269999997 12.0809999993
119 1 29.305000001 7.3989999994 9.9999999996
120 1 30.5789999992 8.1340000007 12.0809999993
121 1 31.8530000004 7.3989999994 9.9999999996
122 1 33.1269999988 5.1919999985 9.9999999996
123 1 34.4019999997 5.9269999997 12.0809999993
124 1 35.6760000009 5.1919999985 9.9999999996
125 1 33.1280000013 8.1340000007 12.0809999993
126 1 34.4019999985 7.3989999994 9.9999999996
127 1 35.6760000007 8.1340000007 12.0809999993
128 1 36.9499999991 5.9269999997 12.0809999993
129 1 -5.0969999984 9.605 9.9999999996
130 1 -6.3710000009 11.8120000009 9.9999999996
131 1 -5.0969999987 12.547999999 12.0809999993
132 1 -3.8219999997 10.3410000016 12.0809999993
133 1 -2.5480000004 9.605 9.9999999996
134 1 -1.2740000003 10.3410000016 12.0809999993
135 1 -3.8230000014 11.8120000009 9.9999999996
136 1 -2.5480000007 12.547999999 12.0809999993
137 1 -2.038985628e-04 9.605 9.9999999996
138 1 -1.2739999993 11.8120000009 9.9999999996
139 1 1.2739999992 10.3410000016 12.0809999993
140 1 2.5479999985 9.605 9.9999999996
141 1 3.8219999986 10.3410000016 12.0809999993
142 1 -1.2808980543e-09 12.547999999 12.0809999993
143 1 1.2740000001 11.8120000009 9.9999999996
144 1 2.5480000022 12.547999999 12.0809999993
145 1 3.8219999995 11.8120000009 9.9999999996
146 1 5.096000002 9.605 9.9999999996
147 1 6.3710000007 10.3410000016 12.0809999993
148 1 7.645 9.605 9.9999999996
149 1 5.0970000002 12.547999999 12.0809999993
150 1 6.3709999975 11.8120000009 9.9999999996
151 1 7.6449999997 12.547999999 12.0809999993
152 1 8.9190000001 10.3410000016 12.0809999993
153 1 10.1929999994 9.605 9.9999999996
154 1 11.4669999995 10.3410000016 12.0809999993
155 1 8.919000001 11.8120000009 9.9999999996
156 1 10.1929999991 12.547999999 12.0809999993
157 1 11.4670000004 11.8120000009 9.9999999996
158 1 12.7409999988 9.605 9.9999999996
159 1 14.0159999975 10.3410000016 12.0809999993
160 1 12.7410000026 12.547999999 12.0809999993
161 1 15.2900000009 9.605 9.9999999996
162 1 14.0149999998 11.8120000009 9.9999999996
163 1 15.2900000006 12.547999999 12.0809999993
164 1 16.564000001 10.3410000016 12.0809999993
165 1 17.8380000003 9.605 9.9999999996
166 1 19.1120000004 10.3410000016 12.0809999993
167 1 16.5639999979 11.8120000009 9.9999999996
168 1 17.838 12.547999999 12.0809999993
169 1 20.3859999998 9.605 9.9999999996
170 1 19.1120000014 11.8120000009 9.9999999996
171 1 21.6599999999 10.3410000016 12.0809999993
172 1 22.9339999992 9.605 9.9999999996
173 1 24.2089999979 10.3410000016 12.0809999993
174 1 20.3859999994 12.547999999 12.0809999993
175 1 21.6600000008 11.8120000009 9.9999999996
176 1 22.9350000015 12.547999999 12.0809999993
177 1 24.2089999988 11.8120000009 9.9999999996
178 1 25.4830000013 9.605 9.9999999996
179 1 26.7569999973 10.3410000016 12.0809999993
180 1 28.0310000007 9.605 9.9999999996
181 1 25.4830000009 12.547999999 12.0809999993
182 1 26.7569999982 11.8120000009 9.9999999996
183 1 28.0310000004 12.547999999 12.0809999993
184 1 29.3050000008 10.3410000016 12.0809999993
185 1 30.5790000001 9.605 9.9999999996
186 1 31.8539999988 10.3410000016 12.0809999993
187 1 29.3049999976 11.8120000009 9.9999999996
188 1 30.5789999998 12.547999999 12.0809999993
189 1 31.8530000011 11.8120000009 9.9999999996
190 1 33.1269999995 9.605 9.9999999996
191 1 34.4019999982 10.3410000016 12.0809999993
192 1 33.1280000019 12.547999999 12.0809999993
193 1 -8.9189999997 16.2259999992 9.9999999996
194 1 -7.6449999972 14.0189999983 9.9999999996
195 1 -6.3710000012 14.7549999999 12.0809999993
196 1 -5.0969999978 14.0189999983 9.9999999996
197 1 -7.6449999996 16.9620000009 12.0809999993
198 1 -6.3710000003 16.2259999992 9.9999999996
199 1 -5.0970000002 16.9620000009 12.0809999993
200 1 -3.8219999991 14.7549999999 12.0809999993
201 1 -2.5479999998 14.0189999983 9.9999999996
202 1 -1.2739999997 14.7549999999 12.0809999993
203 1 -2.038979931e-04 14.0189999983 9.9999999996
204 1 -3.8230000009 16.2259999992 9.9999999996
205 1 -2.5480000022 16.9620000009 12.0809999993
206 1 -1.2739999988 16.2259999992 9.9999999996
207 1 1.2739999997 14.7549999999 12.0809999993
208 1 1.3275016642e-09 16.9620000009 12.0809999993
209 1 2.547999999 14.0189999983 9.9999999996
210 1 3.8219999992 14.7549999999 12.0809999993
211 1 1.2740000006 16.2259999992 9.9999999996
212 1 2.5480000007 16.9620000009 12.0809999993
213 1 3.8220000001 16.2259999992 9.9999999996
214 1 5.0960000025 14.0189999983 9.9999999996
215 1 6.3710000012 14.7549999999 12.0809999993
216 1 5.0969999988 16.9620000009 12.0809999993
217 1 7.6450000006 14.0189999983 9.9999999996
218 1 6.3710000022 16.2259999992 9.9999999996
219 1 7.6449999982 16.9620000009 12.0809999993
220 1 8.9190000007 14.7549999999 12.0809999993
221 1 10.193 14.0189999983 9.9999999996
222 1 11.4670000001 14.7549999999 12.0809999993
223 1 8.9190000016 16.2259999992 9.9999999996
224 1 10.1929999976 16.9620000009 12.0809999993
225 1 11.467000001 16.2259999992 9.9999999996
226 1 12.7409999994 14.0189999983 9.9999999996
227 1 14.0159999981 14.7549999999 12.0809999993
228 1 15.2900000015 14.0189999983 9.9999999996
229 1 12.7410000011 16.9620000009 12.0809999993
230 1 14.0150000004 16.2259999992 9.9999999996
231 1 15.2899999991 16.9620000009 12.0809999993
232 1 16.5640000016 14.7549999999 12.0809999993
233 1 17.8380000009 14.0189999983 9.9999999996
234 1 19.112000001 14.7549999999 12.0809999993
235 1 20.3860000003 14.0189999983 9.9999999996
236 1 16.5639999984 16.2259999992 9.9999999996
237 1 17.8379999985 16.9620000009 12.0809999993
238 1 19.1120000019 16.2259999992 9.9999999996
239 1 21.6600000004 14.7549999999 12.0809999993
240 1 20.385999998 16.9620000009 12.0809999993
241 1 22.9339999997 14.0189999983 9.9999999996
242 1 24.2089999985 14.7549999999 12.0809999993
243 1 21.6600000013 16.2259999992 9.9999999996
244 1 22.935 16.9620000009 12.0809999993
245 1 24.2089999994 16.2259999992 9.9999999996
246 1 25.4830000018 14.0189999983 9.9999999996
247 1 26.7570000019 14.7549999999 12.0809999993
248 1 25.4829999995 16.9620000009 12.0809999993
249 1 28.0310000013 14.0189999983 9.9999999996
250 1 26.7569999988 16.2259999992 9.9999999996
251 1 28.0309999989 16.9620000009 12.0809999993
252 1 29.3050000014 14.7549999999 12.0809999993
253 1 30.5790000007 14.0189999983 9.9999999996
254 1 31.8539999994 14.7549999999 12.0809999993
255 1 29.3050000023 16.2259999992 9.9999999996
256 1 30.5789999983 16.9620000009 12.0809999993
257 1 -10.1929999981 18.4330000002 9.9999999996
258 1 -8.9189999999 19.1680000014 12.0809999993
259 1 -11.4670000006 20.6400000011 9.9999999996
260 1 -10.1930000004 21.3749999988 12.0809999993
261 1 -8.9190000012 20.6400000011 9.9999999996
262 1 -7.6449999987 18.4330000002 9.9999999996
263 1 -6.3710000005 19.1680000014 12.0809999993
264 1 -7.645000001 21.3749999988 12.0809999993
265 1 -5.0969999993 18.4330000002 9.9999999996
266 1 -6.3710000018 20.6400000011 9.9999999996
267 1 -5.0969999975 21.3749999988 12.0809999993
268 1 -3.8220000025 19.1680000014 12.0809999993
269 1 -2.5480000013 18.4330000002 9.9999999996
270 1 -1.273999999 19.1680000014 12.0809999993
271 1 -3.8230000023 20.6400000011 9.9999999996
272 1 -2.5479999994 21.3749999988 12.0809999993
273 1 -2.03899462e-04 18.4330000002 9.9999999996
274 1 -1.2740000002 20.6400000011 9.9999999996
275 1 1.2740000004 19.1680000014 12.0809999993
276 1 2.5480000017 18.4330000002 9.9999999996
277 1 3.8219999998 19.1680000014 12.0809999993
278 1 -3.119815517e-11 21.3749999988 12.0809999993
279 1 1.2739999992 20.6400000011 9.9999999996
280 1 2.5479999994 21.3749999988 12.0809999993
281 1 3.8219999986 20.6400000011 9.9999999996
282 1 5.0960000011 18.4330000002 9.9999999996
283 1 6.3709999978 19.1680000014 12.0809999993
284 1 7.6449999991 18.4330000002 9.9999999996
285 1 5.0970000015 21.3749999988 12.0809999993
286 1 6.3710000007 20.6400000011 9.9999999996
287 1 7.6450000009 21.3749999988 12.0809999993
288 1 8.9189999973 19.1680000014 12.0809999993
289 1 10.1929999985 18.4330000002 9.9999999996
290 1 11.4670000008 19.1680000014 12.0809999993
291 1 8.9190000001 20.6400000011 9.9999999996
292 1 10.1930000003 21.3749999988 12.0809999993
293 1 11.4669999995 20.6400000011 9.9999999996
294 1 12.7409999979 18.4330000002 9.9999999996
295 1 14.0159999988 19.1680000014 12.0809999993
296 1 12.7409999997 21.3749999988 12.0809999993
297 1 15.29 18.4330000002 9.9999999996
298 1 14.0149999989 20.6400000011 9.9999999996
299 1 15.2900000018 21.3749999988 12.0809999993
300 1 16.5639999982 19.1680000014 12.0809999993
301 1 17.8379999994 18.4330000002 9.9999999996
302 1 19.1119999976 19.1680000014 12.0809999993
303 1 16.564000001 20.6400000011 9.9999999996
304 1 17.8380000013 21.3749999988 12.0809999993
305 1 20.3859999989 18.4330000002 9.9999999996
306 1 19.1120000005 20.6400000011 9.9999999996
307 1 21.6600000011 19.1680000014 12.0809999993
308 1 22.9339999983 18.4330000002 9.9999999996
309 1 24.2089999991 19.1680000014 12.0809999993
310 1 20.3860000007 21.3749999988 12.0809999993
311 1 21.6599999999 20.6400000011 9.9999999996
312 1 22.9349999987 21.3749999988 12.0809999993
313 1 24.2089999979 20.6400000011 9.9999999996
314 1 25.4830000004 18.4330000002 9.9999999996
315 1 26.7569999985 19.1680000014 12.0809999993
316 1 28.0309999998 18.4330000002 9.9999999996
317 1 25.4830000022 21.3749999988 12.0809999993
318 1 26.7570000014 20.6400000011 9.9999999996
319 1 28.0310000016 21.3749999988 12.0809999993
320 1 29.304999998 19.1680000014 12.0809999993
321 1 -12.7419999996 22.8469999985 9.9999999996
322 1 -14.015999998 25.0539999994 9.9999999996
323 1 -12.7410000013 25.7890000007 12.0809999993
324 1 -11.4669999988 23.5819999997 12.0809999993
325 1 -10.1929999975 22.8469999985 9.9999999996
326 1 -8.9189999994 23.5819999997 12.0809999993
327 1 -11.467 25.0539999994 9.9999999996
328 1 -10.1930000019 25.7890000007 12.0809999993
329 1 -8.9190000006 25.0539999994 9.9999999996
330 1 -7.6449999981 22.8469999985 9.9999999996
331 1 -6.3709999999 23.5819999997 12.0809999993
332 1 -5.0969999987 22.8469999985 9.9999999996
333 1 -7.6449999984 25.7890000007 12.0809999993
334 1 -6.3710000012 25.0539999994 9.9999999996
335 1 -5.0969999989 25.7890000007 12.0809999993
336 1 -3.8219999979 23.5819999997 12.0809999993
337 1 -2.5480000007 22.8469999985 9.9999999996
338 1 -1.2739999984 23.5819999997 12.0809999993
339 1 -2.038988923e-04 22.8469999985 9.9999999996
340 1 -3.8229999977 25.0539999994 9.9999999996
341 1 -2.5480000009 25.7890000007 12.0809999993
342 1 -1.2739999997 25.0539999994 9.9999999996
343 1 1.274000001 23.5819999997 12.0809999993
344 1 -1.5000996001e-09 25.7890000007 12.0809999993
345 1 2.5480000022 22.8469999985 9.9999999996
346 1 3.8220000004 23.5819999997 12.0809999993
347 1 1.2739999997 25.0539999994 9.9999999996
348 1 2.5479999979 25.7890000007 12.0809999993
349 1 3.8219999992 25.0539999994 9.9999999996
350 1 5.0960000016 22.8469999985 9.9999999996
351 1 6.3709999984 23.5819999997 12.0809999993
352 1 5.097 25.7890000007 12.0809999993
353 1 7.6449999997 22.8469999985 9.9999999996
354 1 6.3710000013 25.0539999994 9.9999999996
355 1 7.6449999994 25.7890000007 12.0809999993
356 1 8.9190000019 23.5819999997 12.0809999993
357 1 10.1929999991 22.8469999985 9.9999999996
358 1 11.4670000013 23.5819999997 12.0809999993
359 1 8.9190000007 25.0539999994 9.9999999996
360 1 10.1929999989 25.7890000007 12.0809999993
361 1 11.4670000001 25.0539999994 9.9999999996
362 1 12.7410000026 22.8469999985 9.9999999996
363 1 14.0159999993 23.5819999997 12.0809999993
364 1 15.2900000006 22.8469999985 9.9999999996
365 1 12.7409999983 25.7890000007 12.0809999993
366 1 14.0149999995 25.0539999994 9.9999999996
367 1 15.2900000004 25.7890000007 12.0809999993
368 1 16.5639999988 23.5819999997 12.0809999993
369 1 17.838 22.8469999985 9.9999999996
370 1 19.1119999982 23.5819999997 12.0809999993
371 1 20.3859999994 22.8469999985 9.9999999996
372 1 16.5640000016 25.0539999994 9.9999999996
373 1 17.8379999998 25.7890000007 12.0809999993
374 1 19.112000001 25.0539999994 9.9999999996
375 1 21.6600000017 23.5819999997 12.0809999993
376 1 20.3859999992 25.7890000007 12.0809999993
377 1 22.9339999988 22.8469999985 9.9999999996
378 1 24.2089999997 23.5819999997 12.0809999993
379 1 21.6600000004 25.0539999994 9.9999999996
380 1 22.9350000013 25.7890000007 12.0809999993
381 1 24.2089999985 25.0539999994 9.9999999996
382 1 25.4830000009 22.8469999985 9.9999999996
383 1 26.7569999991 23.5819999997 12.0809999993
384 1 25.4830000007 25.7890000007 12.0809999993
385 1 -16.5640000009 29.4670000009 9.9999999996
386 1 -15.2900000005 27.2610000004 9.9999999996
387 1 -14.0160000023 27.9960000016 12.0809999993
388 1 -12.7420000011 27.2610000004 9.9999999996
389 1 -15.2899999987 30.202999999 12.0809999993
390 1 -14.0160000014 29.4670000009 9.9999999996
391 1 -12.7410000007 30.202999999 12.0809999993
392 1 -11.4670000003 27.9960000016 12.0809999993
393 1 -10.192999999 27.2610000004 9.9999999996
394 1 -8.9190000008 27.9960000016 12.0809999993
395 1 -11.4669999993 29.4670000009 9.9999999996
396 1 -10.1930000013 30.202999999 12.0809999993
397 1 -8.9189999999 29.4670000009 9.9999999996
398 1 -7.6449999996 27.2610000004 9.9999999996
399 1 -6.3710000014 27.9960000016 12.0809999993
400 1 -7.6449999978 30.202999999 12.0809999993
401 1 -5.0970000002 27.2610000004 9.9999999996
402 1 -6.3710000005 29.4670000009 9.9999999996
403 1 -5.0969999984 30.202999999 12.0809999993
404 1 -3.8219999993 27.9960000016 12.0809999993
405 1 -2.5480000022 27.2610000004 9.9999999996
406 1 -1.2739999999 27.9960000016 12.0809999993
407 1 -3.8230000011 29.4670000009 9.9999999996
408 1 -2.5480000003 30.202999999 12.0809999993
409 1 -2.039003612e-04 27.2610000004 9.9999999996
410 1 -1.273999999 29.4670000009 9.9999999996
411 1 1.2739999995 27.9960000016 12.0809999993
412 1 2.5480000008 27.2610000004 9.9999999996
413 1 3.8219999989 27.9960000016 12.0809999993
414 1 -9.3039531635e-10 30.202999999 12.0809999993
415 1 1.2740000004 29.4670000009 9.9999999996
416 1 2.5480000026 30.202999999 12.0809999993
417 1 3.8219999998 29.4670000009 9.9999999996
418 1 5.0960000002 27.2610000004 9.9999999996
419 1 6.371000001 27.9960000016 12.0809999993
420 1 7.6449999982 27.2610000004 9.9999999996
421 1 5.0970000006 30.202999999 12.0809999993
422 1 6.3709999979 29.4670000009 9.9999999996
423 1 7.645 30.202999999 12.0809999993
424 1 8.9190000004 27.9960000016 12.0809999993
425 1 10.1930000017 27.2610000004 9.9999999996
426 1 11.4669999999 27.9960000016 12.0809999993
427 1 8.9190000014 29.4670000009 9.9999999996
428 1 10.1929999994 30.202999999 12.0809999993
429 1 11.4670000008 29.4670000009 9.9999999996
430 1 12.7410000011 27.2610000004 9.9999999996
431 1 14.0159999979 27.9960000016 12.0809999993
432 1 12.7409999988 30.202999999 12.0809999993
433 1 15.2899999991 27.2610000004 9.9999999996
434 1 14.0150000002 29.4670000009 9.9999999996
435 1 15.2900000009 30.202999999 12.0809999993
436 1 16.5639999973 27.9960000016 12.0809999993
437 1 17.8379999985 27.2610000004 9.9999999996
438 1 19.1120000008 27.9960000016 12.0809999993
439 1 16.5639999982 29.4670000009 9.9999999996
440 1 17.8380000004 30.202999999 12.0809999993
441 1 20.385999998 27.2610000004 9.9999999996
442 1 19.1119999976 29.4670000009 9.9999999996
443 1 21.6600000002 27.9960000016 12.0809999993
444 1 22.9340000015 27.2610000004 9.9999999996
445 1 24.2089999982 27.9960000016 12.0809999993
446 1 20.3859999998 30.202999999 12.0809999993
447 1 21.6600000011 29.4670000009 9.9999999996
448 1 22.9350000019 30.202999999 12.0809999993
449 1 -17.8379999972 31.6739999983 9.9999999996
450 1 -16.5640000012 32.4099999999 12.0809999993
451 1 -19.1119999997 33.8809999992 9.9999999996
452 1 -17.8379999996 34.6170000009 12.0809999993
453 1 -16.5640000003 33.8809999992 9.9999999996
454 1 -15.2899999978 31.6739999983 9.9999999996
455 1 -14.0160000018 32.4099999999 12.0809999993
456 1 -15.2900000002 34.6170000009 12.0809999993
457 1 -12.7419999984 31.6739999983 9.9999999996
458 1 -14.0160000009 33.8809999992 9.9999999996
459 1 -12.7410000022 34.6170000009 12.0809999993
460 1 -11.4669999997 32.4099999999 12.0809999993
461 1 -10.1930000004 31.6739999983 9.9999999996
462 1 -8.9190000003 32.4099999999 12.0809999993
463 1 -11.4669999988 33.8809999992 9.9999999996
464 1 -10.1929999987 34.6170000009 12.0809999993
465 1 -8.9189999994 33.8809999992 9.9999999996
466 1 -7.645000001 31.6739999983 9.9999999996
467 1 -6.3710000008 32.4099999999 12.0809999993
468 1 -5.0969999975 31.6739999983 9.9999999996
469 1 -7.6449999993 34.6170000009 12.0809999993
470 1 -6.3709999999 33.8809999992 9.9999999996
471 1 -5.0969999998 34.6170000009 12.0809999993
472 1 -3.8219999988 32.4099999999 12.0809999993
473 1 -2.5479999994 31.6739999983 9.9999999996
474 1 -1.2739999993 32.4099999999 12.0809999993
475 1 -2.038976426e-04 31.6739999983 9.9999999996
476 1 -3.8230000005 33.8809999992 9.9999999996
477 1 -2.5480000018 34.6170000009 12.0809999993
478 1 -1.2739999984 33.8809999992 9.9999999996
479 1 1.2740000001 32.4099999999 12.0809999993
480 1 -2.3992967613e-09 34.6170000009 12.0809999993
481 1 2.5479999994 31.6739999983 9.9999999996
482 1 3.8219999995 32.4099999999 12.0809999993
483 1 1.274000001 33.8809999992 9.9999999996
484 1 2.5480000011 34.6170000009 12.0809999993
485 1 3.8220000004 33.8809999992 9.9999999996
486 1 5.0960000029 31.6739999983 9.9999999996
487 1 6.3710000016 32.4099999999 12.0809999993
488 1 5.0969999991 34.6170000009 12.0809999993
489 1 7.6450000009 31.6739999983 9.9999999996
490 1 6.3709999984 33.8809999992 9.9999999996
491 1 7.6449999985 34.6170000009 12.0809999993
492 1 8.919000001 32.4099999999 12.0809999993
493 1 10.1930000003 31.6739999983 9.9999999996
494 1 11.4670000004 32.4099999999 12.0809999993
495 1 8.9190000019 33.8809999992 9.9999999996
496 1 10.192999998 34.6170000009 12.0809999993
497 1 11.4670000013 33.8809999992 9.9999999996
498 1 12.7409999997 31.6739999983 9.9999999996
499 1 14.0159999985 32.4099999999 12.0809999993
500 1 15.2900000018 31.6739999983 9.9999999996
501 1 12.7410000014 34.6170000009 12.0809999993
502 1 14.0150000008 33.8809999992 9.9999999996
503 1 15.2899999995 34.6170000009 12.0809999993
504 1 16.5640000019 32.4099999999 12.0809999993
505 1 17.8380000013 31.6739999983 9.9999999996
506 1 19.1120000014 32.4099999999 12.0809999993
507 1 20.3860000007 31.6739999983 9.9999999996
508 1 16.5639999988 33.8809999992 9.9999999996
509 1 17.8379999989 34.6170000009 12.0809999993
510 1 19.1120000023 33.8809999992 9.9999999996
511 1 21.6600000008 32.4099999999 12.0809999993
512 1 20.3859999983 34.6170000009 12.0809999993
513 1 -2.038998125e-04 0.7780000002 16.2420000013
514 1 -1.2740000006 2.9850000011 16.2420000013
515 1 1.2740000012 0.0419999986 14.1609999987
516 1 3.8220000006 0.0419999986 14.1609999987
517 1 2.5480000013 0.7780000002 16.2420000013
518 1 -1.2878997868e-09 2.2489999995 14.1609999987
519 1 2.5480000022 2.2489999995 14.1609999987
520 1 1.2739999988 2.9850000011 16.2420000013
521 1 3.8219999982 2.9850000011 16.2420000013
522 1 6.3710000027 0.0419999986 14.1609999987
523 1 5.0960000007 0.7780000002 16.2420000013
524 1 7.6449999987 0.7780000002 16.2420000013
525 1 5.0970000002 2.2489999995 14.1609999987
526 1 7.6449999996 2.2489999995 14.1609999987
527 1 6.3710000003 2.9850000011 16.2420000013
528 1 8.9190000021 0.0419999986 14.1609999987
529 1 11.4670000015 0.0419999986 14.1609999987
530 1 10.1929999982 0.7780000002 16.2420000013
531 1 10.1929999991 2.2489999995 14.1609999987
532 1 8.9189999998 2.9850000011 16.2420000013
533 1 11.4669999992 2.9850000011 16.2420000013
534 1 14.0159999996 0.0419999986 14.1609999987
535 1 12.7410000017 0.7780000002 16.2420000013
536 1 12.7409999985 2.2489999995 14.1609999987
537 1 15.2899999997 0.7780000002 16.2420000013
538 1 15.2900000006 2.2489999995 14.1609999987
539 1 14.0149999986 2.9850000011 16.2420000013
540 1 16.563999999 0.0419999986 14.1609999987
541 1 19.1120000025 0.0419999986 14.1609999987
542 1 17.8379999991 0.7780000002 16.2420000013
543 1 17.838 2.2489999995 14.1609999987
544 1 16.5640000007 2.9850000011 16.2420000013
545 1 20.3859999985 0.7780000002 16.2420000013
546 1 19.1120000001 2.9850000011 16.2420000013
547 1 21.6600000019 0.0419999986 14.1609999987
548 1 24.2089999999 0.0419999986 14.1609999987
549 1 22.9339999979 0.7780000002 16.2420000013
550 1 20.3859999994 2.2489999995 14.1609999987
551 1 22.9350000015 2.2489999995 14.1609999987
552 1 21.6599999995 2.9850000011 16.2420000013
553 1 24.2089999975 2.9850000011 16.2420000013
554 1 26.7569999993 0.0419999986 14.1609999987
555 1 25.483 0.7780000002 16.2420000013
556 1 28.0309999994 0.7780000002 16.2420000013
557 1 25.4830000009 2.2489999995 14.1609999987
558 1 28.0310000003 2.2489999995 14.1609999987
559 1 26.757000001 2.9850000011 16.2420000013
560 1 29.3050000028 0.0419999986 14.1609999987
561 1 31.8540000008 0.0419999986 14.1609999987
562 1 30.5789999989 0.7780000002 16.2420000013
563 1 30.5789999998 2.2489999995 14.1609999987
564 1 29.3050000005 2.9850000011 16.2420000013
565 1 31.8529999999 2.9850000011 16.2420000013
566 1 34.4020000003 0.0419999986 14.1609999987
567 1 33.1269999983 0.7780000002 16.2420000013
568 1 33.1280000019 2.2489999995 14.1609999987
569 1 35.6760000004 0.7780000002 16.2420000013
570 1 35.6760000013 2.2489999995 14.1609999987
571 1 34.4019999979 2.9850000011 16.2420000013
572 1 36.9499999997 0.0419999986 14.1609999987
573 1 39.4979999991 0.0419999986 14.1609999987
574 1 38.2239999998 0.7780000002 16.2420000013
575 1 38.2240000007 2.2489999995 14.1609999987
576 1 36.9500000014 2.9850000011 16.2420000013
577 1 -1.2739999997 4.4560000004 14.1609999987
578 1 -2.548000001 5.1919999985 16.2420000013
579 1 -2.038992428e-04 5.1919999985 16.2420000013
580 1 -2.5480000022 6.6630000014 14.1609999987
581 1 -3.822999998 7.3989999994 16.2420000013
582 1 -1.274 7.3989999994 16.2420000013
583 1 1.2739999997 4.4560000004 14.1609999987
584 1 -2.7567992333e-09 6.6630000014 14.1609999987
585 1 3.8219999991 4.4560000004 14.1609999987
586 1 2.5480000019 5.1919999985 16.2420000013
587 1 2.5480000007 6.6630000014 14.1609999987
588 1 1.2739999994 7.3989999994 16.2420000013
589 1 3.8219999988 7.3989999994 16.2420000013
590 1 6.3710000012 4.4560000004 14.1609999987
591 1 5.0960000013 5.1919999985 16.2420000013
592 1 5.0969999988 6.6630000014 14.1609999987
593 1 7.6449999993 5.1919999985 16.2420000013
594 1 7.6449999982 6.6630000014 14.1609999987
595 1 6.3710000009 7.3989999994 16.2420000013
596 1 8.9190000007 4.4560000004 14.1609999987
597 1 11.4670000001 4.4560000004 14.1609999987
598 1 10.1930000028 5.1919999985 16.2420000013
599 1 10.1929999976 6.6630000014 14.1609999987
600 1 8.9190000003 7.3989999994 16.2420000013
601 1 11.4669999997 7.3989999994 16.2420000013
602 1 14.0159999981 4.4560000004 14.1609999987
603 1 12.7410000022 5.1919999985 16.2420000013
604 1 15.2900000002 5.1919999985 16.2420000013
605 1 12.7410000011 6.6630000014 14.1609999987
606 1 15.2899999991 6.6630000014 14.1609999987
607 1 14.0149999992 7.3989999994 16.2420000013
608 1 16.5640000016 4.4560000004 14.1609999987
609 1 19.112000001 4.4560000004 14.1609999987
610 1 17.8379999997 5.1919999985 16.2420000013
611 1 20.3859999991 5.1919999985 16.2420000013
612 1 17.8379999985 6.6630000014 14.1609999987
613 1 16.5640000013 7.3989999994 16.2420000013
614 1 19.1120000007 7.3989999994 16.2420000013
615 1 21.6600000004 4.4560000004 14.1609999987
616 1 20.3859999979 6.6630000014 14.1609999987
617 1 24.2089999984 4.4560000004 14.1609999987
618 1 22.9340000026 5.1919999985 16.2420000013
619 1 22.935 6.6630000014 14.1609999987
620 1 21.6600000001 7.3989999994 16.2420000013
621 1 24.2090000022 7.3989999994 16.2420000013
622 1 26.7569999979 4.4560000004 14.1609999987
623 1 25.4830000006 5.1919999985 16.2420000013
624 1 25.4829999995 6.6630000014 14.1609999987
625 1 28.031 5.1919999985 16.2420000013
626 1 28.0309999989 6.6630000014 14.1609999987
627 1 26.7570000016 7.3989999994 16.2420000013